<?xml version="1.0" encoding="UTF-8"?>

<!-- generated on Fri Jun 26 21:08:27 2020 by Eclipse SUMO Version 1.6.0
<configuration xmlns:xsi="http://www.w3.org/2001/XMLSchema-instance" xsi:noNamespaceSchemaLocation="http://sumo.dlr.de/xsd/sumoConfiguration.xsd">

    <input>
        <net-file value="sumo/map.net.xml"/>
        <route-files value="sumo/map.rou.xml,sumo/map1.rou.xml"/>
    </input>

    <output>
        <tripinfo-output value="sumo/tripinfo.xml"/>
    </output>

    <time>
        <begin value="0"/>
        <end value="2000"/>
    </time>

    <traci_server>
        <remote-port value="59073"/>
    </traci_server>

</configuration>
-->

<tripinfos xmlns:xsi="http://www.w3.org/2001/XMLSchema-instance" xsi:noNamespaceSchemaLocation="http://sumo.dlr.de/xsd/tripinfo_file.xsd">
    <tripinfo id="11" depart="11.00" departLane="-375946574_0" departPos="5.10" departSpeed="0.00" departDelay="0.00" arrival="106.00" arrivalLane="-288740594#2_0" arrivalPos="0.20" arrivalSpeed="2.49" duration="95.00" routeLength="628.12" waitingTime="0.00" waitingCount="0" stopTime="0.00" timeLoss="12.77" rerouteNo="0" devices="tripinfo_11" vType="DEFAULT_VEHTYPE" speedFactor="0.94" vaporized=""/>
    <tripinfo id="20" depart="20.00" departLane="288740594#4_0" departPos="5.10" departSpeed="0.00" departDelay="0.00" arrival="138.00" arrivalLane="-182834256#0_0" arrivalPos="284.78" arrivalSpeed="11.79" duration="118.00" routeLength="1011.67" waitingTime="0.00" waitingCount="0" stopTime="0.00" timeLoss="14.89" rerouteNo="0" devices="tripinfo_20" vType="DEFAULT_VEHTYPE" speedFactor="0.92" vaporized=""/>
    <tripinfo id="27" depart="27.00" departLane="205322022#10_0" departPos="5.10" departSpeed="0.00" departDelay="0.00" arrival="142.00" arrivalLane="288593219_0" arrivalPos="181.38" arrivalSpeed="2.42" duration="115.00" routeLength="363.01" waitingTime="0.00" waitingCount="0" stopTime="0.00" timeLoss="26.47" rerouteNo="0" devices="tripinfo_27" vType="DEFAULT_VEHTYPE" speedFactor="1.01" vaporized=""/>
    <tripinfo id="7" depart="7.00" departLane="205322022#11_0" departPos="5.10" departSpeed="0.00" departDelay="0.00" arrival="150.00" arrivalLane="182834260#1_1" arrivalPos="72.57" arrivalSpeed="15.63" duration="143.00" routeLength="1983.31" waitingTime="0.00" waitingCount="0" stopTime="0.00" timeLoss="16.11" rerouteNo="0" devices="tripinfo_7" vType="DEFAULT_VEHTYPE" speedFactor="0.99" vaporized=""/>
    <tripinfo id="41" depart="41.00" departLane="182834256#0_0" departPos="5.10" departSpeed="0.00" departDelay="0.00" arrival="151.00" arrivalLane="376476536#3_0" arrivalPos="141.52" arrivalSpeed="10.82" duration="110.00" routeLength="1209.33" waitingTime="0.00" waitingCount="0" stopTime="0.00" timeLoss="12.45" rerouteNo="0" devices="tripinfo_41" vType="DEFAULT_VEHTYPE" speedFactor="1.09" vaporized=""/>
    <tripinfo id="67" depart="67.00" departLane="-182834258#6_0" departPos="5.10" departSpeed="0.00" departDelay="0.00" arrival="153.00" arrivalLane="163132714#4_0" arrivalPos="130.07" arrivalSpeed="18.91" duration="86.00" routeLength="1321.85" waitingTime="0.00" waitingCount="0" stopTime="0.00" timeLoss="14.83" rerouteNo="0" devices="tripinfo_67" vType="DEFAULT_VEHTYPE" speedFactor="1.02" vaporized=""/>
    <tripinfo id="78" depart="78.00" departLane="-375946574_0" departPos="5.10" departSpeed="0.00" departDelay="0.00" arrival="153.00" arrivalLane="205322022#6_0" arrivalPos="53.48" arrivalSpeed="7.41" duration="75.00" routeLength="558.32" waitingTime="0.00" waitingCount="0" stopTime="0.00" timeLoss="9.08" rerouteNo="0" devices="tripinfo_78" vType="DEFAULT_VEHTYPE" speedFactor="1.03" vaporized=""/>
    <tripinfo id="59" depart="59.00" departLane="182834258#3_0" departPos="5.10" departSpeed="0.00" departDelay="0.00" arrival="156.00" arrivalLane="-288740594#2_0" arrivalPos="0.20" arrivalSpeed="3.10" duration="97.00" routeLength="1110.12" waitingTime="0.00" waitingCount="0" stopTime="0.00" timeLoss="13.04" rerouteNo="0" devices="tripinfo_59" vType="DEFAULT_VEHTYPE" speedFactor="0.99" vaporized=""/>
    <tripinfo id="38" depart="38.00" departLane="376476536#2_0" departPos="5.10" departSpeed="0.00" departDelay="0.00" arrival="161.00" arrivalLane="163132714#0_1" arrivalPos="179.63" arrivalSpeed="21.17" duration="123.00" routeLength="1463.58" waitingTime="0.00" waitingCount="0" stopTime="0.00" timeLoss="12.18" rerouteNo="0" devices="tripinfo_38" vType="DEFAULT_VEHTYPE" speedFactor="1.09" vaporized=""/>
    <tripinfo id="45" depart="45.00" departLane="-205322022#10_0" departPos="5.10" departSpeed="0.00" departDelay="0.00" arrival="169.00" arrivalLane="288740594#4_0" arrivalPos="39.14" arrivalSpeed="6.71" duration="124.00" routeLength="734.78" waitingTime="2.00" waitingCount="1" stopTime="0.00" timeLoss="19.16" rerouteNo="0" devices="tripinfo_45" vType="DEFAULT_VEHTYPE" speedFactor="0.85" vaporized=""/>
    <tripinfo id="51" depart="51.00" departLane="288268870_0" departPos="5.10" departSpeed="0.00" departDelay="0.00" arrival="172.00" arrivalLane="182834258#5_1" arrivalPos="76.19" arrivalSpeed="16.42" duration="121.00" routeLength="1023.07" waitingTime="15.00" waitingCount="1" stopTime="0.00" timeLoss="32.72" rerouteNo="0" devices="tripinfo_51" vType="DEFAULT_VEHTYPE" speedFactor="1.00" vaporized=""/>
    <tripinfo id="29" depart="29.00" departLane="-288740594#3_0" departPos="5.10" departSpeed="0.00" departDelay="0.00" arrival="179.00" arrivalLane="-376476536#4_0" arrivalPos="44.55" arrivalSpeed="10.63" duration="150.00" routeLength="595.30" waitingTime="0.00" waitingCount="0" stopTime="0.00" timeLoss="32.92" rerouteNo="0" devices="tripinfo_29" vType="DEFAULT_VEHTYPE" speedFactor="0.99" vaporized=""/>
    <tripinfo id="33" depart="33.00" departLane="-358515979#0_0" departPos="5.10" departSpeed="0.00" departDelay="0.00" arrival="180.00" arrivalLane="-163132714#6_0" arrivalPos="21.21" arrivalSpeed="20.74" duration="147.00" routeLength="1395.40" waitingTime="0.00" waitingCount="0" stopTime="0.00" timeLoss="26.63" rerouteNo="0" devices="tripinfo_33" vType="DEFAULT_VEHTYPE" speedFactor="1.10" vaporized=""/>
    <tripinfo id="13" depart="13.00" departLane="-182834260#3_0" departPos="5.10" departSpeed="0.00" departDelay="0.00" arrival="187.00" arrivalLane="-205322015_0" arrivalPos="542.04" arrivalSpeed="8.61" duration="174.00" routeLength="2281.14" waitingTime="2.00" waitingCount="1" stopTime="0.00" timeLoss="24.40" rerouteNo="0" devices="tripinfo_13" vType="DEFAULT_VEHTYPE" speedFactor="1.16" vaporized=""/>
    <tripinfo id="18" depart="18.00" departLane="375946296#2_0" departPos="5.10" departSpeed="0.00" departDelay="0.00" arrival="192.00" arrivalLane="288740594#1_0" arrivalPos="85.76" arrivalSpeed="6.75" duration="174.00" routeLength="818.21" waitingTime="0.00" waitingCount="0" stopTime="0.00" timeLoss="22.73" rerouteNo="0" devices="tripinfo_18" vType="DEFAULT_VEHTYPE" speedFactor="0.83" vaporized=""/>
    <tripinfo id="39" depart="39.00" departLane="-358515990#1_0" departPos="5.10" departSpeed="0.00" departDelay="0.00" arrival="192.00" arrivalLane="-374504412#1_0" arrivalPos="170.08" arrivalSpeed="8.07" duration="153.00" routeLength="1180.27" waitingTime="0.00" waitingCount="0" stopTime="0.00" timeLoss="14.93" rerouteNo="0" devices="tripinfo_39" vType="DEFAULT_VEHTYPE" speedFactor="1.04" vaporized=""/>
    <tripinfo id="137" depart="137.00" departLane="-205322022#7_0" departPos="5.10" departSpeed="0.00" departDelay="0.00" arrival="201.00" arrivalLane="-205322022#2_0" arrivalPos="433.55" arrivalSpeed="9.43" duration="64.00" routeLength="595.14" waitingTime="0.00" waitingCount="0" stopTime="0.00" timeLoss="5.30" rerouteNo="0" devices="tripinfo_137" vType="DEFAULT_VEHTYPE" speedFactor="1.23" vaporized=""/>
    <tripinfo id="bus1.0" depart="0.00" departLane="-163132714#3_0" departPos="206.50" departSpeed="0.00" departDelay="0.00" arrival="206.00" arrivalLane="-182834260#3_0" arrivalPos="618.08" arrivalSpeed="16.77" duration="206.00" routeLength="2552.19" waitingTime="13.00" waitingCount="2" stopTime="0.00" timeLoss="42.45" rerouteNo="1" devices="tripinfo_bus1.0 routing_bus1.0" vType="bus1" speedFactor="1.01" vaporized=""/>
    <tripinfo id="bus1.1" depart="0.00" departLane="-163132714#3_0" departPos="188.90" departSpeed="0.00" departDelay="0.00" arrival="208.00" arrivalLane="-182834260#3_0" arrivalPos="618.08" arrivalSpeed="17.94" duration="208.00" routeLength="2569.79" waitingTime="9.00" waitingCount="4" stopTime="0.00" timeLoss="54.73" rerouteNo="1" devices="tripinfo_bus1.1 routing_bus1.1" vType="bus1" speedFactor="1.08" vaporized=""/>
    <tripinfo id="85" depart="88.00" departLane="376476536#8_0" departPos="5.10" departSpeed="0.00" departDelay="3.00" arrival="209.00" arrivalLane="205322022#11_0" arrivalPos="75.04" arrivalSpeed="7.04" duration="121.00" routeLength="1193.56" waitingTime="7.00" waitingCount="1" stopTime="0.00" timeLoss="25.70" rerouteNo="0" devices="tripinfo_85" vType="DEFAULT_VEHTYPE" speedFactor="1.04" vaporized=""/>
    <tripinfo id="97" depart="97.00" departLane="-376476536#4_0" departPos="5.10" departSpeed="0.00" departDelay="0.00" arrival="211.00" arrivalLane="376261293_0" arrivalPos="226.42" arrivalSpeed="2.14" duration="114.00" routeLength="432.92" waitingTime="0.00" waitingCount="0" stopTime="0.00" timeLoss="23.96" rerouteNo="0" devices="tripinfo_97" vType="DEFAULT_VEHTYPE" speedFactor="1.12" vaporized=""/>
    <tripinfo id="109" depart="109.00" departLane="-288740594#0_0" departPos="5.10" departSpeed="0.00" departDelay="0.00" arrival="211.00" arrivalLane="-375946574_0" arrivalPos="270.77" arrivalSpeed="7.78" duration="102.00" routeLength="696.04" waitingTime="1.00" waitingCount="1" stopTime="0.00" timeLoss="13.76" rerouteNo="0" devices="tripinfo_109" vType="DEFAULT_VEHTYPE" speedFactor="0.96" vaporized=""/>
    <tripinfo id="53" depart="53.00" departLane="-205322022#10_0" departPos="5.10" departSpeed="0.00" departDelay="0.00" arrival="212.00" arrivalLane="-376992499_0" arrivalPos="157.19" arrivalSpeed="9.36" duration="159.00" routeLength="2261.61" waitingTime="0.00" waitingCount="0" stopTime="0.00" timeLoss="15.37" rerouteNo="0" devices="tripinfo_53" vType="DEFAULT_VEHTYPE" speedFactor="1.14" vaporized=""/>
    <tripinfo id="bus1.2" depart="0.00" departLane="-163132714#3_0" departPos="171.30" departSpeed="0.00" departDelay="0.00" arrival="218.00" arrivalLane="-182834260#3_0" arrivalPos="618.08" arrivalSpeed="17.12" duration="218.00" routeLength="2587.39" waitingTime="8.00" waitingCount="4" stopTime="0.00" timeLoss="55.31" rerouteNo="1" devices="tripinfo_bus1.2 routing_bus1.2" vType="bus1" speedFactor="1.03" vaporized=""/>
    <tripinfo id="57" depart="57.00" departLane="376476536#11_0" departPos="5.10" departSpeed="0.00" departDelay="0.00" arrival="222.00" arrivalLane="376261295_0" arrivalPos="78.15" arrivalSpeed="3.01" duration="165.00" routeLength="1469.05" waitingTime="0.00" waitingCount="0" stopTime="0.00" timeLoss="22.82" rerouteNo="0" devices="tripinfo_57" vType="DEFAULT_VEHTYPE" speedFactor="1.12" vaporized=""/>
    <tripinfo id="76" depart="79.00" departLane="-376476536#3_0" departPos="5.10" departSpeed="0.00" departDelay="3.00" arrival="222.00" arrivalLane="182834256#3_0" arrivalPos="343.82" arrivalSpeed="13.27" duration="143.00" routeLength="1565.13" waitingTime="0.00" waitingCount="0" stopTime="0.00" timeLoss="14.25" rerouteNo="0" devices="tripinfo_76" vType="DEFAULT_VEHTYPE" speedFactor="1.01" vaporized=""/>
    <tripinfo id="126" depart="126.00" departLane="-182834258#2_0" departPos="5.10" departSpeed="0.00" departDelay="0.00" arrival="227.00" arrivalLane="163132714#0_0" arrivalPos="179.63" arrivalSpeed="21.26" duration="101.00" routeLength="1458.95" waitingTime="4.00" waitingCount="1" stopTime="0.00" timeLoss="23.87" rerouteNo="0" devices="tripinfo_126" vType="DEFAULT_VEHTYPE" speedFactor="1.15" vaporized=""/>
    <tripinfo id="80" depart="80.00" departLane="-182834258#2_0" departPos="5.10" departSpeed="0.00" departDelay="0.00" arrival="228.00" arrivalLane="288740594#5_0" arrivalPos="45.74" arrivalSpeed="7.46" duration="148.00" routeLength="1731.34" waitingTime="0.00" waitingCount="0" stopTime="0.00" timeLoss="17.17" rerouteNo="0" devices="tripinfo_80" vType="DEFAULT_VEHTYPE" speedFactor="1.02" vaporized=""/>
    <tripinfo id="3" depart="3.00" departLane="376261295_0" departPos="5.10" departSpeed="0.00" departDelay="0.00" arrival="231.00" arrivalLane="-182834260#2_0" arrivalPos="311.54" arrivalSpeed="17.78" duration="228.00" routeLength="2155.60" waitingTime="3.00" waitingCount="1" stopTime="0.00" timeLoss="33.14" rerouteNo="0" devices="tripinfo_3" vType="DEFAULT_VEHTYPE" speedFactor="1.09" vaporized=""/>
    <tripinfo id="82" depart="82.00" departLane="376259024_0" departPos="5.10" departSpeed="0.00" departDelay="0.00" arrival="232.00" arrivalLane="-182834258#4_1" arrivalPos="302.91" arrivalSpeed="19.08" duration="150.00" routeLength="2803.42" waitingTime="0.00" waitingCount="0" stopTime="0.00" timeLoss="12.64" rerouteNo="0" devices="tripinfo_82" vType="DEFAULT_VEHTYPE" speedFactor="1.15" vaporized=""/>
    <tripinfo id="22" depart="22.00" departLane="-182834258#5_0" departPos="5.10" departSpeed="0.00" departDelay="0.00" arrival="233.00" arrivalLane="-358515990#1_0" arrivalPos="107.54" arrivalSpeed="8.63" duration="211.00" routeLength="2780.28" waitingTime="0.00" waitingCount="0" stopTime="0.00" timeLoss="16.18" rerouteNo="0" devices="tripinfo_22" vType="DEFAULT_VEHTYPE" speedFactor="1.13" vaporized=""/>
    <tripinfo id="19" depart="19.00" departLane="376260880_0" departPos="5.10" departSpeed="0.00" departDelay="0.00" arrival="241.00" arrivalLane="205322022#3_0" arrivalPos="10.82" arrivalSpeed="6.22" duration="222.00" routeLength="885.19" waitingTime="0.00" waitingCount="0" stopTime="0.00" timeLoss="40.77" rerouteNo="0" devices="tripinfo_19" vType="DEFAULT_VEHTYPE" speedFactor="0.87" vaporized=""/>
    <tripinfo id="127" depart="127.00" departLane="376993892_0" departPos="5.10" departSpeed="0.00" departDelay="0.00" arrival="243.00" arrivalLane="376993892_0" arrivalPos="909.35" arrivalSpeed="8.43" duration="116.00" routeLength="904.25" waitingTime="0.00" waitingCount="0" stopTime="0.00" timeLoss="10.42" rerouteNo="0" devices="tripinfo_127" vType="DEFAULT_VEHTYPE" speedFactor="1.03" vaporized=""/>
    <tripinfo id="151" depart="151.00" departLane="375946573#0_0" departPos="5.10" departSpeed="0.00" departDelay="0.00" arrival="244.00" arrivalLane="205322022#4_0" arrivalPos="2.10" arrivalSpeed="5.34" duration="93.00" routeLength="621.86" waitingTime="0.00" waitingCount="0" stopTime="0.00" timeLoss="14.25" rerouteNo="0" devices="tripinfo_151" vType="DEFAULT_VEHTYPE" speedFactor="0.97" vaporized=""/>
    <tripinfo id="8" depart="9.00" departLane="-358515974_0" departPos="5.10" departSpeed="0.00" departDelay="1.00" arrival="246.00" arrivalLane="205322022#6_0" arrivalPos="53.48" arrivalSpeed="7.31" duration="237.00" routeLength="2121.81" waitingTime="7.00" waitingCount="1" stopTime="0.00" timeLoss="42.24" rerouteNo="0" devices="tripinfo_8" vType="DEFAULT_VEHTYPE" speedFactor="0.93" vaporized=""/>
    <tripinfo id="9" depart="9.00" departLane="374685832#2_0" departPos="5.10" departSpeed="0.00" departDelay="0.00" arrival="248.00" arrivalLane="-163132714#1_1" arrivalPos="131.44" arrivalSpeed="16.22" duration="239.00" routeLength="2864.52" waitingTime="0.00" waitingCount="0" stopTime="0.00" timeLoss="23.03" rerouteNo="0" devices="tripinfo_9" vType="DEFAULT_VEHTYPE" speedFactor="0.88" vaporized=""/>
    <tripinfo id="100" depart="100.00" departLane="376992498#2_0" departPos="5.10" departSpeed="0.00" departDelay="0.00" arrival="248.00" arrivalLane="376476537#2_0" arrivalPos="299.67" arrivalSpeed="7.24" duration="148.00" routeLength="1118.17" waitingTime="0.00" waitingCount="0" stopTime="0.00" timeLoss="18.45" rerouteNo="0" devices="tripinfo_100" vType="DEFAULT_VEHTYPE" speedFactor="0.96" vaporized=""/>
    <tripinfo id="165" depart="166.00" departLane="374685832#2_0" departPos="5.10" departSpeed="0.00" departDelay="1.00" arrival="248.00" arrivalLane="-374685832#2_0" arrivalPos="312.31" arrivalSpeed="9.34" duration="82.00" routeLength="624.65" waitingTime="2.00" waitingCount="1" stopTime="0.00" timeLoss="15.56" rerouteNo="0" devices="tripinfo_165" vType="DEFAULT_VEHTYPE" speedFactor="1.14" vaporized=""/>
    <tripinfo id="119" depart="119.00" departLane="182834256#3_0" departPos="5.10" departSpeed="0.00" departDelay="0.00" arrival="250.00" arrivalLane="288740594#2_0" arrivalPos="0.20" arrivalSpeed="8.57" duration="131.00" routeLength="1545.41" waitingTime="0.00" waitingCount="0" stopTime="0.00" timeLoss="14.94" rerouteNo="0" devices="tripinfo_119" vType="DEFAULT_VEHTYPE" speedFactor="1.07" vaporized=""/>
    <tripinfo id="0" depart="0.00" departLane="205322022#0_0" departPos="5.10" departSpeed="0.00" departDelay="0.00" arrival="251.00" arrivalLane="-163132714#4_1" arrivalPos="130.07" arrivalSpeed="19.37" duration="251.00" routeLength="3586.61" waitingTime="0.00" waitingCount="0" stopTime="0.00" timeLoss="26.43" rerouteNo="0" devices="tripinfo_0" vType="DEFAULT_VEHTYPE" speedFactor="1.06" vaporized=""/>
    <tripinfo id="112" depart="112.00" departLane="-182834256#2_0" departPos="5.10" departSpeed="0.00" departDelay="0.00" arrival="255.00" arrivalLane="205322022#5_0" arrivalPos="9.92" arrivalSpeed="7.67" duration="143.00" routeLength="1504.09" waitingTime="0.00" waitingCount="0" stopTime="0.00" timeLoss="20.20" rerouteNo="0" devices="tripinfo_112" vType="DEFAULT_VEHTYPE" speedFactor="1.10" vaporized=""/>
    <tripinfo id="83" depart="83.00" departLane="-358515980_0" departPos="5.10" departSpeed="0.00" departDelay="0.00" arrival="257.00" arrivalLane="358515968_0" arrivalPos="327.46" arrivalSpeed="8.08" duration="174.00" routeLength="1248.47" waitingTime="0.00" waitingCount="0" stopTime="0.00" timeLoss="18.59" rerouteNo="0" devices="tripinfo_83" vType="DEFAULT_VEHTYPE" speedFactor="0.98" vaporized=""/>
    <tripinfo id="bus3.0" depart="0.00" departLane="182834256#2_0" departPos="290.88" departSpeed="0.00" departDelay="0.00" arrival="258.00" arrivalLane="-182834258#1_0" arrivalPos="993.11" arrivalSpeed="14.76" duration="258.00" routeLength="2967.07" waitingTime="6.00" waitingCount="2" stopTime="0.00" timeLoss="28.48" rerouteNo="1" devices="tripinfo_bus3.0 routing_bus3.0" vType="bus3" speedFactor="0.89" vaporized=""/>
    <tripinfo id="bus3.1" depart="0.00" departLane="182834256#2_0" departPos="273.28" departSpeed="0.00" departDelay="0.00" arrival="260.00" arrivalLane="-182834258#1_0" arrivalPos="993.11" arrivalSpeed="15.63" duration="260.00" routeLength="2984.67" waitingTime="6.00" waitingCount="3" stopTime="0.00" timeLoss="41.16" rerouteNo="1" devices="tripinfo_bus3.1 routing_bus3.1" vType="bus3" speedFactor="0.94" vaporized=""/>
    <tripinfo id="32" depart="32.00" departLane="376094773_0" departPos="5.10" departSpeed="0.00" departDelay="0.00" arrival="263.00" arrivalLane="375946296#1_0" arrivalPos="10.43" arrivalSpeed="2.09" duration="231.00" routeLength="3156.25" waitingTime="0.00" waitingCount="0" stopTime="0.00" timeLoss="31.02" rerouteNo="0" devices="tripinfo_32" vType="DEFAULT_VEHTYPE" speedFactor="1.18" vaporized=""/>
    <tripinfo id="74" depart="74.00" departLane="-358515966#1_0" departPos="5.10" departSpeed="0.00" departDelay="0.00" arrival="268.00" arrivalLane="-376259020_0" arrivalPos="198.72" arrivalSpeed="10.47" duration="194.00" routeLength="983.68" waitingTime="0.00" waitingCount="0" stopTime="0.00" timeLoss="36.74" rerouteNo="0" devices="tripinfo_74" vType="DEFAULT_VEHTYPE" speedFactor="1.03" vaporized=""/>
    <tripinfo id="79" depart="79.00" departLane="-358515979#0_0" departPos="5.10" departSpeed="0.00" departDelay="0.00" arrival="274.00" arrivalLane="-358515981#0_0" arrivalPos="61.24" arrivalSpeed="2.62" duration="195.00" routeLength="464.79" waitingTime="0.00" waitingCount="0" stopTime="0.00" timeLoss="46.88" rerouteNo="0" devices="tripinfo_79" vType="DEFAULT_VEHTYPE" speedFactor="1.00" vaporized=""/>
    <tripinfo id="64" depart="64.00" departLane="376260885#1_0" departPos="5.10" departSpeed="0.00" departDelay="0.00" arrival="276.00" arrivalLane="376260879_0" arrivalPos="132.06" arrivalSpeed="1.83" duration="212.00" routeLength="404.70" waitingTime="0.00" waitingCount="0" stopTime="0.00" timeLoss="52.49" rerouteNo="0" devices="tripinfo_64" vType="DEFAULT_VEHTYPE" speedFactor="0.91" vaporized=""/>
    <tripinfo id="44" depart="44.00" departLane="-182834260#2_0" departPos="5.10" departSpeed="0.00" departDelay="0.00" arrival="278.00" arrivalLane="-182834256#1_0" arrivalPos="1.39" arrivalSpeed="3.00" duration="234.00" routeLength="2672.70" waitingTime="17.00" waitingCount="1" stopTime="0.00" timeLoss="43.60" rerouteNo="0" devices="tripinfo_44" vType="DEFAULT_VEHTYPE" speedFactor="0.88" vaporized=""/>
    <tripinfo id="54" depart="54.00" departLane="-376476536#8_0" departPos="5.10" departSpeed="0.00" departDelay="0.00" arrival="280.00" arrivalLane="376991558_0" arrivalPos="686.50" arrivalSpeed="7.54" duration="226.00" routeLength="2123.95" waitingTime="0.00" waitingCount="0" stopTime="0.00" timeLoss="18.37" rerouteNo="0" devices="tripinfo_54" vType="DEFAULT_VEHTYPE" speedFactor="1.02" vaporized=""/>
    <tripinfo id="152" depart="152.00" departLane="-288593219_0" departPos="5.10" departSpeed="0.00" departDelay="0.00" arrival="281.00" arrivalLane="-205322022#6_0" arrivalPos="53.48" arrivalSpeed="7.39" duration="129.00" routeLength="554.60" waitingTime="0.00" waitingCount="0" stopTime="0.00" timeLoss="24.27" rerouteNo="0" devices="tripinfo_152" vType="DEFAULT_VEHTYPE" speedFactor="1.04" vaporized=""/>
    <tripinfo id="183" depart="183.00" departLane="-358515987#2_0" departPos="5.10" departSpeed="0.00" departDelay="0.00" arrival="281.00" arrivalLane="358515987#1_0" arrivalPos="59.18" arrivalSpeed="2.37" duration="98.00" routeLength="215.28" waitingTime="0.00" waitingCount="0" stopTime="0.00" timeLoss="22.45" rerouteNo="0" devices="tripinfo_183" vType="DEFAULT_VEHTYPE" speedFactor="1.03" vaporized=""/>
    <tripinfo id="68" depart="68.00" departLane="-182834258#1_0" departPos="5.10" departSpeed="0.00" departDelay="0.00" arrival="289.00" arrivalLane="374685832#1_0" arrivalPos="388.03" arrivalSpeed="7.35" duration="221.00" routeLength="2110.34" waitingTime="0.00" waitingCount="0" stopTime="0.00" timeLoss="19.80" rerouteNo="0" devices="tripinfo_68" vType="DEFAULT_VEHTYPE" speedFactor="0.97" vaporized=""/>
    <tripinfo id="179" depart="179.00" departLane="-205322022#1_0" departPos="5.10" departSpeed="0.00" departDelay="0.00" arrival="291.00" arrivalLane="-376992499_0" arrivalPos="157.19" arrivalSpeed="8.70" duration="112.00" routeLength="1007.58" waitingTime="0.00" waitingCount="0" stopTime="0.00" timeLoss="9.60" rerouteNo="0" devices="tripinfo_179" vType="DEFAULT_VEHTYPE" speedFactor="1.14" vaporized=""/>
    <tripinfo id="62" depart="62.00" departLane="-163132714#0_0" departPos="5.10" departSpeed="0.00" departDelay="0.00" arrival="292.00" arrivalLane="-376260882_0" arrivalPos="237.77" arrivalSpeed="2.06" duration="230.00" routeLength="1176.43" waitingTime="0.00" waitingCount="0" stopTime="0.00" timeLoss="52.38" rerouteNo="0" devices="tripinfo_62" vType="DEFAULT_VEHTYPE" speedFactor="0.91" vaporized=""/>
    <tripinfo id="244" depart="246.00" departLane="163132714#1_0" departPos="5.10" departSpeed="0.00" departDelay="2.00" arrival="307.00" arrivalLane="288582441_0" arrivalPos="26.04" arrivalSpeed="7.70" duration="61.00" routeLength="700.23" waitingTime="0.00" waitingCount="0" stopTime="0.00" timeLoss="17.06" rerouteNo="0" devices="tripinfo_244" vType="DEFAULT_VEHTYPE" speedFactor="0.96" vaporized=""/>
    <tripinfo id="181" depart="181.00" departLane="182834258#3_0" departPos="5.10" departSpeed="0.00" departDelay="0.00" arrival="309.00" arrivalLane="182834256#1_0" arrivalPos="1.39" arrivalSpeed="9.18" duration="128.00" routeLength="1173.30" waitingTime="15.00" waitingCount="2" stopTime="0.00" timeLoss="47.01" rerouteNo="0" devices="tripinfo_181" vType="DEFAULT_VEHTYPE" speedFactor="0.92" vaporized=""/>
    <tripinfo id="23" depart="23.00" departLane="-205322015_0" departPos="5.10" departSpeed="0.00" departDelay="0.00" arrival="311.00" arrivalLane="-375946141#1_0" arrivalPos="337.74" arrivalSpeed="7.00" duration="288.00" routeLength="2308.01" waitingTime="1.00" waitingCount="1" stopTime="0.00" timeLoss="30.19" rerouteNo="0" devices="tripinfo_23" vType="DEFAULT_VEHTYPE" speedFactor="0.93" vaporized=""/>
    <tripinfo id="48" depart="48.00" departLane="376993891_0" departPos="5.10" departSpeed="0.00" departDelay="0.00" arrival="313.00" arrivalLane="182834258#2_1" arrivalPos="196.59" arrivalSpeed="16.03" duration="265.00" routeLength="1738.99" waitingTime="2.00" waitingCount="1" stopTime="0.00" timeLoss="57.26" rerouteNo="0" devices="tripinfo_48" vType="DEFAULT_VEHTYPE" speedFactor="1.02" vaporized=""/>
    <tripinfo id="108" depart="108.00" departLane="163132714#12_0" departPos="5.10" departSpeed="0.00" departDelay="0.00" arrival="315.00" arrivalLane="358515988_0" arrivalPos="313.82" arrivalSpeed="2.38" duration="207.00" routeLength="1370.85" waitingTime="0.00" waitingCount="0" stopTime="0.00" timeLoss="45.67" rerouteNo="0" devices="tripinfo_108" vType="DEFAULT_VEHTYPE" speedFactor="1.06" vaporized=""/>
    <tripinfo id="6" depart="6.00" departLane="-163132714#4_0" departPos="5.10" departSpeed="0.00" departDelay="0.00" arrival="316.00" arrivalLane="-358515969_0" arrivalPos="38.99" arrivalSpeed="8.18" duration="310.00" routeLength="2953.57" waitingTime="0.00" waitingCount="0" stopTime="0.00" timeLoss="28.79" rerouteNo="0" devices="tripinfo_6" vType="DEFAULT_VEHTYPE" speedFactor="1.12" vaporized=""/>
    <tripinfo id="180" depart="180.00" departLane="358515966#0_0" departPos="5.10" departSpeed="0.00" departDelay="0.00" arrival="316.00" arrivalLane="-376259020_0" arrivalPos="198.72" arrivalSpeed="9.74" duration="136.00" routeLength="833.05" waitingTime="0.00" waitingCount="0" stopTime="0.00" timeLoss="23.40" rerouteNo="0" devices="tripinfo_180" vType="DEFAULT_VEHTYPE" speedFactor="0.96" vaporized=""/>
    <tripinfo id="25" depart="25.00" departLane="-376259024_0" departPos="5.10" departSpeed="0.00" departDelay="0.00" arrival="320.00" arrivalLane="-358515976#1_0" arrivalPos="160.21" arrivalSpeed="8.68" duration="295.00" routeLength="3399.93" waitingTime="0.00" waitingCount="0" stopTime="0.00" timeLoss="52.83" rerouteNo="0" devices="tripinfo_25" vType="DEFAULT_VEHTYPE" speedFactor="1.15" vaporized=""/>
    <tripinfo id="37" depart="37.00" departLane="205322022#2_0" departPos="5.10" departSpeed="0.00" departDelay="0.00" arrival="320.00" arrivalLane="-376476536#9_0" arrivalPos="37.51" arrivalSpeed="9.41" duration="283.00" routeLength="2062.52" waitingTime="27.00" waitingCount="2" stopTime="0.00" timeLoss="69.95" rerouteNo="0" devices="tripinfo_37" vType="DEFAULT_VEHTYPE" speedFactor="0.96" vaporized=""/>
    <tripinfo id="145" depart="145.00" departLane="-163132714#1_0" departPos="5.10" departSpeed="0.00" departDelay="0.00" arrival="320.00" arrivalLane="375946141#1_0" arrivalPos="342.60" arrivalSpeed="7.25" duration="175.00" routeLength="1521.92" waitingTime="0.00" waitingCount="0" stopTime="0.00" timeLoss="22.03" rerouteNo="0" devices="tripinfo_145" vType="DEFAULT_VEHTYPE" speedFactor="0.94" vaporized=""/>
    <tripinfo id="34" depart="39.00" departLane="-375946296#1_0" departPos="5.10" departSpeed="0.00" departDelay="5.00" arrival="322.00" arrivalLane="-374685832#2_0" arrivalPos="312.31" arrivalSpeed="6.55" duration="283.00" routeLength="2479.98" waitingTime="0.00" waitingCount="0" stopTime="0.00" timeLoss="32.32" rerouteNo="0" devices="tripinfo_34" vType="DEFAULT_VEHTYPE" speedFactor="0.90" vaporized=""/>
    <tripinfo id="40" depart="40.00" departLane="163132714#3_0" departPos="5.10" departSpeed="0.00" departDelay="0.00" arrival="322.00" arrivalLane="-374685832#1_0" arrivalPos="389.32" arrivalSpeed="7.62" duration="282.00" routeLength="3826.08" waitingTime="0.00" waitingCount="0" stopTime="0.00" timeLoss="25.56" rerouteNo="0" devices="tripinfo_40" vType="DEFAULT_VEHTYPE" speedFactor="1.04" vaporized=""/>
    <tripinfo id="75" depart="75.00" departLane="376993891_0" departPos="5.10" departSpeed="0.00" departDelay="0.00" arrival="322.00" arrivalLane="358515625_0" arrivalPos="49.67" arrivalSpeed="7.88" duration="247.00" routeLength="1255.21" waitingTime="1.00" waitingCount="1" stopTime="0.00" timeLoss="54.93" rerouteNo="0" devices="tripinfo_75" vType="DEFAULT_VEHTYPE" speedFactor="0.98" vaporized=""/>
    <tripinfo id="275" depart="275.00" departLane="288740594#0_0" departPos="5.10" departSpeed="0.00" departDelay="0.00" arrival="327.00" arrivalLane="288740594#4_0" arrivalPos="39.14" arrivalSpeed="8.97" duration="52.00" routeLength="376.09" waitingTime="0.00" waitingCount="0" stopTime="0.00" timeLoss="11.52" rerouteNo="0" devices="tripinfo_275" vType="DEFAULT_VEHTYPE" speedFactor="1.13" vaporized=""/>
    <tripinfo id="153" depart="153.00" departLane="-375946141#1_0" departPos="5.10" departSpeed="0.00" departDelay="0.00" arrival="328.00" arrivalLane="376476536#3_0" arrivalPos="141.52" arrivalSpeed="10.31" duration="175.00" routeLength="1385.28" waitingTime="0.00" waitingCount="0" stopTime="0.00" timeLoss="21.27" rerouteNo="0" devices="tripinfo_153" vType="DEFAULT_VEHTYPE" speedFactor="0.96" vaporized=""/>
    <tripinfo id="98" depart="98.00" departLane="163132714#11_0" departPos="5.10" departSpeed="0.00" departDelay="0.00" arrival="331.00" arrivalLane="-182834256#2_0" arrivalPos="291.09" arrivalSpeed="14.59" duration="233.00" routeLength="3382.89" waitingTime="18.00" waitingCount="2" stopTime="0.00" timeLoss="53.51" rerouteNo="0" devices="tripinfo_98" vType="DEFAULT_VEHTYPE" speedFactor="1.10" vaporized=""/>